;;
;; Generated by CHARMM-GUI FF-Converter
;;
;; Correspondance:
;; jul316@lehigh.edu or wonpil@lehigh.edu
;;
;; GROMACS topology file for UNK
;;


[ moleculetype ]
; name	nrexcl
UNK	     3

[ atoms ]
; nr	type	resnr	residu	atom	cgnr	charge	mass
     1     CG2RC0    900      UNK     C1      1     0.108000    12.0110   ; qtot  0.108
     2     NG2R51    900      UNK     N1      2    -0.478000    14.0070   ; qtot -0.370
     3      OG2D2    900      UNK     O1      3    -0.864000    15.9994   ; qtot -1.234
     4     CG2R51    900      UNK     C2      4    -0.030000    12.0110   ; qtot -1.264
     5      OG2D2    900      UNK     O2      5    -0.864000    15.9994   ; qtot -2.128
     6     CG2RC0    900      UNK     C3      6     0.244000    12.0110   ; qtot -1.884
     7     CG2R51    900      UNK     C4      7    -0.144000    12.0110   ; qtot -2.028
     8      CG321    900      UNK     C5      8    -0.134000    12.0110   ; qtot -2.162
     9     CG2R61    900      UNK     C6      9    -0.258000    12.0110   ; qtot -2.420
    10     CG2R61    900      UNK     C7     10    -0.262000    12.0110   ; qtot -2.682
    11     CG2R61    900      UNK     C8     11    -0.205000    12.0110   ; qtot -2.887
    12     CG2R61    900      UNK     C9     12    -0.177000    12.0110   ; qtot -3.064
    13      CG2O3    900      UNK    C10     13     0.706000    12.0110   ; qtot -2.358
    14       HGA2    900      UNK     H1     14     0.090000     1.0080   ; qtot -2.268
    15       HGA2    900      UNK     H2     15     0.090000     1.0080   ; qtot -2.178
    16      HGR52    900      UNK     H3     16     0.181000     1.0080   ; qtot -1.997
    17       HGP1    900      UNK     H4     17     0.348000     1.0080   ; qtot -1.649
    18      HGR61    900      UNK     H5     18     0.197000     1.0080   ; qtot -1.452
    19      HGR61    900      UNK     H6     19     0.184000     1.0080   ; qtot -1.268
    20      HGR61    900      UNK     H7     20     0.134000     1.0080   ; qtot -1.134
    21      HGR61    900      UNK     H8     21     0.134000     1.0080   ; qtot -1.000

[ bonds ]
; ai	aj	funct	b0	Kb
    1     4     1
    1     6     1
    1     9     1
    2     6     1
    2     7     1
    2    17     1
    3    13     1
    4     7     1
    4     8     1
    5    13     1
    6    10     1
    7    16     1
    8    13     1
    8    14     1
    8    15     1
    9    11     1
    9    18     1
   10    12     1
   10    19     1
   11    12     1
   11    20     1
   12    21     1

[ pairs ]
; ai	aj	funct	c6	c12 or
; ai	aj	funct	fudgeQQ	q1	q2	c6	c12
    1    12     1
    1    13     1
    1    14     1
    1    15     1
    1    16     1
    1    17     1
    1    19     1
    1    20     1
    2     8     1
    2     9     1
    2    12     1
    2    19     1
    3     4     1
    3    14     1
    3    15     1
    4     5     1
    4    10     1
    4    11     1
    4    17     1
    4    18     1
    5    14     1
    5    15     1
    6     8     1
    6    11     1
    6    16     1
    6    18     1
    6    21     1
    7     9     1
    7    10     1
    7    13     1
    7    14     1
    7    15     1
    8     9     1
    8    16     1
    9    10     1
    9    21     1
   10    17     1
   10    20     1
   11    19     1
   12    18     1
   16    17     1
   18    20     1
   19    21     1
   20    21     1

[ angles ] 
; ai	aj	ak	funct	th0	cth	S0	Kub
    4     1     6     5
    4     1     9     5
    6     1     9     5
    6     2     7     5
    6     2    17     5
    7     2    17     5
    1     4     7     5
    1     4     8     5
    7     4     8     5
    1     6     2     5
    1     6    10     5
    2     6    10     5
    2     7     4     5
    2     7    16     5
    4     7    16     5
    4     8    13     5
    4     8    14     5
    4     8    15     5
   13     8    14     5
   13     8    15     5
   14     8    15     5
    1     9    11     5
    1     9    18     5
   11     9    18     5
    6    10    12     5
    6    10    19     5
   12    10    19     5
    9    11    12     5
    9    11    20     5
   12    11    20     5
   10    12    11     5
   10    12    21     5
   11    12    21     5
    3    13     5     5
    3    13     8     5
    5    13     8     5

[ dihedrals ]
; ai	aj	ak	al	funct	phi0	cp	mult
    6     1     4     7     9
    6     1     4     8     9
    4     1     6    10     9
    9     1     6    10     9
    4     1     9    11     9
    4     1     9    18     9
    6     1     9    11     9
    6     1     9    18     9
    7     2     6    10     9
    6     2     7    16     9
    7     4     1     9     9
    8     4     1     9     9
    1     4     7     2     9
    1     4     7    16     9
    8     4     7    16     9
    1     4     8    13     9
    1     4     8    14     9
    1     4     8    15     9
    7     4     8    13     9
    7     4     8    14     9
    7     4     8    15     9
    2     6     1     4     9
    2     6     1     9     9
    1     6     2     7     9
    1     6     2    17     9
   10     6     2    17     9
    1     6    10    12     9
    1     6    10    19     9
    2     6    10    12     9
    2     6    10    19     9
    4     7     2     6     9
    4     7     2    17     9
   16     7     2    17     9
    2     7     4     8     9
    4     8    13     5     9
    1     9    11    12     9
    1     9    11    20     9
   18     9    11    20     9
    6    10    12    11     9
    6    10    12    21     9
   19    10    12    21     9
   12    11     9    18     9
    9    11    12    10     9
    9    11    12    21     9
   20    11    12    21     9
   11    12    10    19     9
   10    12    11    20     9
    3    13     8     4     9
    3    13     8    14     9
    3    13     8    15     9
    5    13     8    14     9
    5    13     8    15     9

[ dihedrals ]
; ai	aj	ak	al	funct	q0	cq
   13     3     5     8     2

#ifdef POSRES
[ position_restraints ]
    1     1    POSRES_FC_BB    POSRES_FC_BB    POSRES_FC_BB   
    2     1    POSRES_FC_BB    POSRES_FC_BB    POSRES_FC_BB   
    3     1    POSRES_FC_BB    POSRES_FC_BB    POSRES_FC_BB   
    4     1    POSRES_FC_BB    POSRES_FC_BB    POSRES_FC_BB   
    5     1    POSRES_FC_BB    POSRES_FC_BB    POSRES_FC_BB   
    6     1    POSRES_FC_BB    POSRES_FC_BB    POSRES_FC_BB   
    7     1    POSRES_FC_BB    POSRES_FC_BB    POSRES_FC_BB   
    8     1    POSRES_FC_BB    POSRES_FC_BB    POSRES_FC_BB   
    9     1    POSRES_FC_BB    POSRES_FC_BB    POSRES_FC_BB   
   10     1    POSRES_FC_BB    POSRES_FC_BB    POSRES_FC_BB   
   11     1    POSRES_FC_BB    POSRES_FC_BB    POSRES_FC_BB   
   12     1    POSRES_FC_BB    POSRES_FC_BB    POSRES_FC_BB   
   13     1    POSRES_FC_BB    POSRES_FC_BB    POSRES_FC_BB   
#endif
