;;
;; Generated by CHARMM-GUI FF-Converter
;;
;; Correspondance:
;; jul316@lehigh.edu or wonpil@lehigh.edu
;;
;; The main GROMACS topology file
;;

; Include forcefield parameters
#include "toppar/forcefield.itp"
#include "toppar/PROA.itp"
#include "toppar/MG.itp"
#include "toppar/UNK.itp"
#include "toppar/SITO.itp"
#include "toppar/POPE.itp"
#include "toppar/POPS.itp"
#include "toppar/POPC.itp"
#include "toppar/SOD.itp"
#include "toppar/CLA.itp"
#include "toppar/TIP3.itp"

[ system ]
; Name
Title

[ molecules ]
; Compound	#mols
PROA  	           1
MG    	           2
UNK   	           1
SITO  	          40
POPE  	         120
POPS  	          80
POPC  	         164
SOD   	         231
CLA   	         153
TIP3  	       56741
